144
Lattice="7.155701 0.0 0.0 0.0 7.155701 0.0 0.0 0.0 22.25889421" Properties=species:S:1:pos:R:3:REF_forces:R:3 REF_energy=-1009.45130696 config_type=crystal rss_group=crystal REF_stress="0.025670272631655167 0.0004076522347916163 -0.007942165704331816 0.0004076522347916163 0.025332511542787334 0.023365982098345197 -0.007942165704331816 0.023365982098345197 -0.015152434934344535" pbc="T T T"
C        0.14544921       0.31982477      18.87354366       2.00141936       1.04844482      -0.01144671
C        5.62794402       3.84881593      13.66953440      -1.96477207       1.71953778      -0.68961275
C        4.66584772       2.99212246      12.74681575       1.47407494       0.99213702       1.02303044
C        5.65698486       2.10401030      11.90140470      -1.54695491       0.13366072      -0.89219486
C        3.30033102       2.49448087      20.71350036       3.75723786       0.35775068      -1.04312206
C        1.15022076       4.83047893      11.07399597      -0.33149946      -0.27791795      -0.14398699
C        3.85001795       0.31685709      11.83897852      -0.87977876       0.96366590       1.66086049
C        3.87401237       5.67676000      13.67700582      -1.99043468       0.81056217       0.42488616
C        2.90782980       4.82399937      12.79823981      -0.33650787       0.21684640      -0.10805256
C        1.99861019       0.31497714      13.73754890       0.90765781       0.09154604      -1.91191261
C        1.13545912       6.62435614      12.82025964       0.04650921      -0.95946793      -0.41009495
C        2.04638973       5.82433274      11.86900443       0.21775378      -2.57000887       0.84049407
C        2.84326734       3.01763224      18.03792741       1.99686742      -0.29685603      -1.06211375
C        1.17818438       1.19529273      11.01509827      -1.59605122       0.26793901       0.69322050
C        3.77852949       3.94838594      11.87545461      -0.37627182      -1.82321437       1.06825363
C        3.76336420       2.13819824      13.64972598       1.10405434      -1.83552100      -0.95342998
C        2.82733568       1.18930727      12.76266742       2.59710519       1.14021365       1.40049701
C        1.98113890       3.92929166      13.67422301       1.56553055      -2.23663660      -0.07422520
C        1.06291928       2.92766612      12.89765716       1.86859829       3.44247888      -3.37175125
C        1.95518925       2.16646905      11.92670438       1.87431948      -2.26724722      -1.12355906
C        6.49292874       1.19302201      12.82068212       0.39482256       0.07562384      -1.31801442
C        3.87774357       3.88227864      18.85718850      -4.07952337       1.09346493       0.42998293
C        0.23624783       2.05093010      13.70037921      -1.25470275      -0.00205204       1.18565112
C        4.75704355       1.21919292      11.04149487      -0.25702777       0.15963602      -0.42926858
C        1.93048248       2.12526581      18.78750369       1.68590708       0.12123003       2.80974471
C        1.04792894       1.22689109      18.01296673       1.72641912      -1.11993678      -0.02154016
C        3.77423549       3.88703990      15.38563994       2.21584171       0.22538410       1.72766076
C        2.92223623       2.99490452      14.53298962      -1.30517439       0.95623981       0.41157080
C        3.81376724       2.10183268      17.22596992      -0.95133429       0.87192217      -0.72655824
C        2.90689448       1.24622494      16.32503984       1.66554459      -0.42236693       0.08422711
C        1.96012311       3.88944478      17.15279447       0.94231603       1.48934415       1.83432703
C        1.07250820       3.03844646      16.31569956       0.51944182      -1.28555630      -0.61239486
C        2.01598688       2.14301474      15.47229025      -0.41666331      -0.82266011      -1.20440869
C        1.14076472       1.18976195      14.59149267      -0.87658033       0.84535336       1.02412005
C        2.87022859       1.26120590      19.95103062      -2.60583457       1.41555489      -1.36716936
C        4.62668442       4.87106456      11.13560814       1.05524572      -0.64082475      -2.74708741
C        0.21070727       0.29305229      11.89643073       1.26016507       0.69744568       0.24402926
C        0.26432837       5.67544850      13.65380671       0.17216547       0.06003484       1.04580674
C        6.50545866       4.79698918      12.82695935      -0.27721447      -1.70745809      -0.68636039
C        5.59777208       0.32355826      13.64629366       0.80573201       0.14457191       1.53596967
C        4.73348755       6.59235134      12.81935415      -0.58326617      -0.36466206      -0.94000343
C        5.59135864       5.64539978      11.95382996       0.99068438       1.68897561      -1.04786427
C        6.43917268       6.58619550      17.97562833       1.11708708      -0.41650778       2.51939398
C        0.21294450       3.85794117      11.93641193       0.63946976       0.88999746      -0.85153263
C        1.17710151       4.73944303      14.57752967      -2.13186035       2.62020794      -0.32485767
C        2.04082632       5.67832689      15.43414385      -0.14640701      -0.15216690       0.56675468
C        1.12544064       6.57086384      16.30264272       0.92071737      -0.78613991       1.07024755
C        5.34005200       4.27380639      20.60448921      -2.62799567      -0.14720066       1.59956506
C        6.53396647       1.30235561      19.99223785      -1.64571205      -3.27715272      -2.33663540
C        0.57780647       1.86574428      20.54259479       0.16794629      -0.65050144       1.82151976
C        6.50719227       2.99583455      18.13872815      -1.89075602       1.20063949       0.29761848
C        0.20876149       3.92182419      19.04808701       0.00721307      -0.41651512       0.31230733
C        4.75090389       4.78549404      14.54213647      -0.60147105      -0.26514719       0.46302104
C        5.67168411       5.70154756      15.43369555      -2.48576174      -0.32837489      -0.82684453
C        4.69492140       6.57829224      16.31073338       0.45385714       0.90006375       0.22356947
C        5.57716245       0.32982694      17.25307346      -2.23491471       0.89979111      -2.17143791
C        6.50727978       4.78471608      16.26386305      -0.57891223       0.40707190       1.83461807
C        0.17232867       5.67813697      17.16326595       2.49780341       0.26002760       0.64162739
C        6.55047689       6.58877356      14.55184780      -1.35377449      -0.60338935      -0.33136052
C        0.24538473       0.26637133      15.45576258      -0.52189442       2.55790868       0.02819155
C        4.68273252       4.81861156      17.98399434       1.38261728      -1.28759633       2.43928477
C        5.58118016       5.69207456      18.82174388      -0.08829636       1.08412424       1.14599775
C        4.80685438       6.59446670      19.87570920      -1.60689406      -1.16608596      -0.55279405
C        5.97299100       0.00693359      20.68414711       0.26313718       0.86704136      -0.28190986
C        6.44242623       4.89210125      19.81018324      -0.17968132       0.31030727       1.15655878
C        7.05487317       6.11150326      20.59478945      -1.48281007      -1.47520827       1.34789619
C        4.60457910       3.08785851      19.87986248       0.83391656       0.55575887       1.13599710
C        5.53549931       2.12948502      19.09806958       0.89378755       0.10951871       0.29506520
C        4.64113558       1.22126327      18.14870637       0.98388113      -0.22640717       1.11296553
C        0.21269598       3.90267217      15.44280901       0.55619474      -0.57963999      -1.88231801
C        2.08680463       0.33014651      17.19420403      -3.43189493      -1.08398815      -0.21588649
C        2.92467232       4.76820845      16.30635150      -1.36311535       0.57256569      -0.24487133
C        3.80607700       5.64623893      17.20294977      -1.44417994       1.94894557      -1.81365772
C        2.91158125       6.59473991      14.59981772       1.33607705      -0.31825580      -1.31311285
C        3.84057907       0.37573019      15.42484497      -1.10583656      -1.61975380       0.12422338
C        1.04962649       4.77780360      18.13368340       1.44912017       1.12497876      -0.71705291
C        1.99140733       5.67157083      19.05332297      -0.51546713       0.66089192       0.45324943
C        1.05717046       6.66644812      19.93879469       0.34776381       1.79622869      -1.77664393
C        1.60811349       0.83521607      20.64797040      -0.01013912      -2.84872400       0.03065622
C        1.15240661       3.00098551      19.87290569      -0.30067833       0.68268740      -1.77095511
C        2.93313665       4.76265541      19.89431563       1.71727579       0.14588908      -0.90280218
C        2.87878359       6.53995150      18.09828218       0.78453655       0.96675723       1.76839216
C        3.74862395       0.32306738      19.05886209       1.64306837       0.03678919       1.16660751
C        4.71970496       1.22872445      14.50306655      -0.77867093       0.44462573       1.82829103
C        5.60848961       2.12308311      15.49712784      -1.28547812      -0.31190164      -3.09225700
C        4.69608177       2.99680593      16.32666518       0.05212312       0.65407444       0.16343328
C        5.60028388       3.95503895      17.20291416       0.36321171      -2.58735639      -1.43473709
C        6.41729734       1.22526582      16.36613243       2.23975563      -0.29767435      -1.20703708
C        0.21036258       2.12601608      17.17016242      -1.35999693      -0.18783351       0.86936569
C        6.45704376       2.99799693      14.51323330       1.96580876      -1.30866107       3.09723067
C        4.12673062       5.46946213      20.63760622       0.39174882      -1.74022362       0.63215108
C        2.32853874       3.54684120      20.54771634      -0.17048243       1.78586749       1.21710731
Cu       0.36927789       7.06134636       0.49580151       0.30652797       0.13216699      -0.43091330
Cu       3.64223793       6.91617028       0.54389719       0.16131878       0.95874653      -1.28740540
Cu       1.90043361       0.12643036       2.32310670       0.77200965      -0.38272968       0.00491623
Cu       2.15116007       5.41401583       7.74988966      -0.97235215       0.69772332       0.30402333
Cu       2.12171780       3.92128722       9.62712199      -0.59455899      -0.12536288      -0.32273849
Cu       0.19672818       5.62598100       9.47737395       0.15075153      -1.02013502       0.91550717
Cu       0.15215146       3.76124818       7.79333635      -0.11612684      -0.19861811      -0.12065574
Cu       1.95625409       5.41636147       4.10983593       0.22532432       0.45439855       0.46725074
Cu       1.88719642       3.63492917       6.06678048       0.42964795      -0.26346108      -0.74297480
Cu       0.36071753       5.37661899       6.06588589      -1.09402450       0.59928187      -0.92142609
Cu       0.17425928       3.65894205       4.20774724      -0.26197073       0.02423738      -0.12569350
Cu       3.82500026       1.71204096       2.25366630      -0.82629995       0.35271166       0.29580865
Cu       2.02147587       5.12002128       0.39184023       0.20638229       0.00771429      -0.22558034
Cu       0.37357253       5.37353903       2.40517569      -0.99266366       0.37413099      -0.48158682
Cu       0.24068236       3.61925317       0.65561258      -1.02351932      -0.64338460      -0.57242027
Cu       1.98954635       1.96357409       7.74751998      -0.62513843      -0.01402430      -0.21348844
Cu       1.86509139       0.24322986       9.44130897       0.78638759       0.33236355       0.58109927
Cu       0.29055509       2.21220471       9.59466853       0.37137888      -0.84380133      -0.67801837
Cu       0.21913841       7.13389100       7.70769792      -0.29939465       1.04698382      -0.61214961
Cu       1.90571595       1.95357213       4.17309704       0.57686239      -0.21778706       0.31981997
Cu       2.08191872       0.02786716       6.02817821      -0.36103147       0.53740502      -0.07643168
Cu       0.06426113       1.91685029       6.00062415       0.83852544      -0.18333298      -0.50420802
Cu       1.93983941       3.58464233       2.33485672       0.66040090      -0.18837343      -0.34872479
Cu       0.40364680       0.09856177       4.29260861      -1.00547101      -0.25202672      -0.32073777
Cu       5.74527376       0.00091729       2.37879957      -0.25400589      -0.49053795       0.65897692
Cu       3.64838890       0.16155004       4.18355204       0.28975310      -0.69588910      -0.18884989
Cu       0.24175922       1.82270545       2.41570348      -0.45033384       0.14848777      -0.50983027
Cu       5.53237606       5.46393450       7.70354864      -0.08447688       0.47356337      -0.13371822
Cu       5.41143190       3.78973932       9.55013360       0.68195042       0.57466890       0.56749993
Cu       3.77717649       5.75308371       9.53554890       1.01121235      -0.57072718       0.34630055
Cu       3.81904650       3.73135946       7.72665560       0.03703639      -0.42326485       0.05191722
Cu       5.52442944       5.46944711       4.12451500       0.08242383      -0.14259662       0.00558454
Cu       5.45494837       3.64035863       5.82961040       0.42920041       0.22122541       0.12108166
Cu       3.68005316       5.29820510       5.95770656       0.71457540       1.02120080      -0.71084781
Cu       3.55683192       3.78440274       4.03748784       1.35871224      -0.98199392       0.30287384
Cu       5.52874561       1.55936485       0.71118814       0.70070051       0.20751818      -1.23444086
Cu       5.75795080       5.55540647       0.59413062      -0.33785128      -0.88074472      -0.72413543
Cu       3.81496424       5.39025167       2.14308389      -0.18549725      -0.59615815       1.38899377
Cu       4.16664576       3.56875589       0.43641678      -0.30178841      -0.19200628      -0.65577236
Cu       5.61790615       1.84894570       7.66587057      -0.44156553       0.40081896       0.32775355
Cu       5.78895302       0.43741054       9.61980015      -0.74527211      -1.10846652      -0.39419684
Cu       3.73515542       1.97854481       9.36433905       0.62850934      -0.21421306       1.64230172
Cu       3.77856269       0.17854197       7.72884788       0.46373410      -0.09623355      -0.47770261
Cu       5.41162797       1.80221768       4.02565680       0.68823404       0.27150041       0.86369539
Cu       5.63369664       0.04080388       5.83730664      -0.56421917      -0.01160139       0.35123009
Cu       3.68653937       1.99211324       5.94983069       0.38541340      -0.48111844      -0.30551350
Cu       5.54334246       3.59006335       2.38233873       0.32152500       0.27416913       0.02149975
Cu       2.16908732       1.87702116       0.48868579      -0.18519494      -0.19999874      -0.55352215
N        2.98142254       6.64212604      11.06469353      -1.31673554      -1.07112251      -0.30182540
N        2.93463227       2.98348001      11.11129542      -0.92670959       0.47079041      -0.02001583
N        6.57394079       6.51032554      11.13095181      -1.40684847      -0.04844754      -0.55999255
N        6.54790692       2.95428354      11.06866452      -0.78630623       1.15881938       1.35501982
144
Lattice="7.155701 0.0 0.0 0.0 7.155701 0.0 0.0 0.0 22.25889421" Properties=species:S:1:pos:R:3:REF_forces:R:3 REF_energy=-1009.47811917 config_type=crystal rss_group=crystal REF_stress="0.021738566602356953 -0.005718883224887462 -0.02850332561786936 -0.005718883224887462 0.026378314014404575 -0.00014707732402332655 -0.02850332561786936 -0.00014707732402332655 -0.009797028458798993" pbc="T T T"
C        0.02076756       0.23842109      18.90622195      -1.80846466      -0.81578173       0.09773753
C        5.45022146       3.83702920      13.66682705      -1.49605766      -1.07342348       1.62092600
C        4.54073129       2.88151163      12.81879011       1.07556909       1.14600560      -0.95548524
C        5.37023510       2.01346020      11.82829091       1.42024248      -0.77391777       2.35989109
C        3.15950403       2.30377128      20.77939604       0.79829776      -0.26672009      -0.56493004
C        0.89742831       4.59362015      11.11767549       2.52768527       2.61796550      -2.45817038
C        3.61789051       0.17076336      11.97159990      -2.62608847       0.51367843      -0.11277193
C        3.68755906       5.51712540      13.68766315      -2.60241462       0.18146489       1.60786930
C        2.78973247       4.62028465      12.83783215      -1.10997461       0.79683305      -0.91811870
C        1.85360277       0.15697404      13.73698953      -2.45993868       2.14888791      -1.30553648
C        0.95395305       6.40364284      12.80835002      -0.48777886       1.94929051       1.32895010
C        1.82237694       5.60655893      11.88995984      -1.09537242      -3.68359218       0.83257114
C        2.69338904       2.83952048      18.07643241       0.85654093      -0.57524032      -0.92636568
C        1.01181576       1.00430206      11.06156683      -0.82868031      -0.67226289      -0.25410131
C        3.64828686       3.74869107      11.90464916       0.00111211       0.34381818      -0.48794947
C        3.68134047       1.99068217      13.64339578      -1.44639557      -0.69851681       3.32985833
C        2.69211411       1.14192508      12.91653537       1.19050592      -2.80660330      -2.62414859
C        1.86048713       3.72426695      13.70176038      -0.08918803       0.40164471      -0.02320290
C        0.95194795       2.84440346      12.76598734       0.24821694      -0.20939419       2.15606744
C        1.88934993       1.88329299      11.88248531      -0.62409573       2.77507951       1.25959586
C        6.30061019       1.07677150      12.71916642      -1.47063612       0.61172473       3.83371893
C        3.56668431       3.70426032      18.90510232      -0.73169049       1.49410154       0.62854043
C        7.14841900       1.99943832      13.72009369       1.08373078      -0.26461919      -1.79171230
C        4.35243095       1.14076464      11.16313438       1.99117899      -0.60170320      -2.58908111
C        1.79966267       1.95145126      18.93821421      -0.11970369       0.11474736       0.07565267
C        0.90200702       1.10761013      18.09380102      -0.24500734       0.48774616      -1.28692149
C        3.57009787       3.79382637      15.51573627       0.70990776       0.02011805      -2.10221057
C        2.73934775       2.82672809      14.59747164      -0.49169347       0.94796680       0.21867645
C        3.66073026       1.94395094      17.18494277      -1.03825962       1.28770069       1.59336541
C        2.81437499       1.06370547      16.39184546      -4.53641786      -0.92448536      -1.29940964
C        1.83845973       3.74904063      17.22295584      -1.47581432       1.43851716       0.79055727
C        0.92252728       2.88716778      16.34178966       0.22443954      -0.54672753       0.28998212
C        1.79256242       1.90066753      15.52386923       1.42354542       2.07613744      -1.91582929
C        0.83486301       1.07545156      14.61375001       2.44399255      -0.35576625       0.40280452
C        2.60500612       1.07269797      19.98220198      -1.13311966       1.89390679       0.18599095
C        4.48426687       4.60169070      10.91490965       1.08795004       1.22210917       2.65824789
C        7.14912377       0.15396092      11.95509226       2.40918743      -0.23891938      -2.37750638
C        0.10291057       5.55295550      13.70191374      -1.16662887      -0.13856674       0.91071383
C        6.29176996       4.74285251      12.84267190       0.94782188      -1.53658429      -1.65485652
C        5.42960602       0.14344397      13.71757666      -0.41502505       0.51742219      -0.81669061
C        4.46441581       6.40827079      12.85758380       2.52067356       1.49283079      -2.49371443
C        5.40409609       5.62603238      11.84664782      -0.52798799      -3.11430882       1.47154661
C        6.29017832       6.48412386      18.05796843       0.26648201       0.33392023      -0.44391882
C        0.11790971       3.76243081      11.91714174      -3.89240726      -1.42114304       0.75962882
C        0.97579454       4.67429602      14.62397486      -1.10529272      -0.98234914      -1.93273875
C        1.81017103       5.59998176      15.43020069       0.60022524      -0.61397109       1.74243182
C        0.90780178       6.44940011      16.36318179       0.36752371       1.33873644      -0.01738220
C        4.94842027       4.11033970      20.52476742      -0.34920025       1.18193325       2.68985716
C        6.25580906       1.05924032      19.90085974       1.77405467      -0.71293867       0.15545925
C        0.29747043       1.59569263      20.72679449      -0.33595938       0.63288447      -0.36447066
C        6.30039595       2.90234066      18.14816859      -1.76251476      -1.15180635      -0.32962266
C        0.03790275       3.75535017      18.99673307      -1.30797666       0.66861160       3.76872992
C        4.54083640       4.68384023      14.63060801      -0.38721253      -0.61338095      -0.71939417
C        5.46419189       5.53304912      15.52621309      -1.73610567       0.80861617      -1.13651023
C        4.48593923       6.47359704      16.33640479       0.84450652      -0.91604383       0.63291924
C        5.36294502       0.19831038      17.24292585      -0.56515862       0.57213271      -0.30689546
C        6.29957662       4.63494611      16.40628770       0.21661041       0.92320961       0.01333321
C        0.04476141       5.58347220      17.28274234       0.18301291      -1.66171430      -1.22777106
C        6.35023369       6.41983061      14.63191438      -0.94076353       0.84675197      -0.81657888
C        7.14397137       0.21498459      15.51948445      -0.31206582      -0.60280733      -0.42705570
C        4.41184795       4.66595062      18.04660682       1.72739410      -0.08417165      -0.56331784
C        5.38365283       5.62028306      18.82225850      -2.59379259      -2.09387943       1.05631639
C        4.49366209       6.45865257      19.78297330      -0.40082776      -2.24112584       2.17431394
C        5.58307112       7.06866571      20.55870600       0.80726405      -1.02979914       1.37272117
C        6.08806354       4.74414797      19.92808571       2.43037610      -0.89533576      -2.99361111
C        6.59068055       5.92725848      20.59564286       2.45555280       1.72835994       2.14178168
C        4.42017769       2.89025568      19.93539108      -1.97666407      -0.18795366      -0.67998678
C        5.38074282       1.97123648      19.08937725      -0.76679556       0.58219416      -0.07259807
C        4.44316595       1.04856666      18.13202733       0.98596124       1.20028501       1.80529759
C        0.04022964       3.80617232      15.49658895       0.57521875      -0.61890680      -0.45112585
C        1.76338247       0.22450003      17.26409362       2.19284331      -2.02645774       0.18097363
C        2.67223571       4.73099952      16.38721962       0.29165449      -1.48731615      -1.93515574
C        3.56709062       5.59806582      17.18733427      -0.68875744      -0.08456015       2.71110448
C        2.72002671       6.46096272      14.53948299       1.02594016      -1.04447342       2.23868341
C        3.61565750       0.17956523      15.47360419       0.49495565       0.03478289      -1.41218120
C        0.93591932       4.66300755      18.19523970      -0.32577910      -0.09376652      -0.92070479
C        1.80072622       5.52420668      19.12999506      -2.60646562       0.18626891       0.73413980
C        0.73286886       6.50202886      19.90103782       0.75391528      -0.56722755       1.24865940
C        1.38938683       0.46174722      20.72003647      -0.61450919       0.38056373       0.31223309
C        0.92882258       2.79966430      19.89869841       0.05655121      -0.73589984       0.73650023
C        2.64712207       4.56110672      19.95087681       2.82795463       0.51938892       0.27015419
C        2.59270038       6.46455810      18.26952075       1.87632079       0.07687520      -2.82347456
C        3.49527972       0.18032610      19.12249626       0.99502927       0.64352765      -0.91707618
C        4.53888891       1.03960171      14.57374811      -0.33487400       1.79296071      -0.53662389
C        5.34432467       2.04797443      15.42270144       2.15187368      -1.71890239       0.10726355
C        4.50224893       2.89119924      16.26232162      -1.26838311      -0.32111878       3.38476757
C        5.32778247       3.73533481      17.21578714       2.12665031       1.00440788       0.41218225
C        6.20520645       1.14505198      16.40458155       1.54522887      -0.37842922      -2.19249660
C        0.02635996       2.00445933      17.19936342      -1.27423404       0.46869499       1.88600410
C        6.29411539       2.97006043      14.59399346       0.18444676      -2.15346950      -1.13339956
C        3.94167496       5.22344148      20.62254117      -1.70800746      -1.35925313      -0.22026777
C        2.05382472       3.39768762      20.70790937       0.34851153       0.13377052       0.17752746
Cu       0.59050820       0.58268558       0.43282620       0.16526203      -0.22481540      -0.46805429
Cu       4.19845758       0.01414496       0.51566312      -0.98405480      -0.55863894      -0.76345059
Cu       2.19446273       0.23442642       2.31499422      -0.21937418       0.17614778       0.17973857
Cu       1.93967075       5.45378120       7.71105902      -0.04887611      -0.05868165      -0.07370842
Cu       1.83213545       3.65634210       9.61012955      -0.15617536       0.80482453      -0.07417198
Cu       7.13406481       5.55247134       9.61378224       0.55968118      -0.77972980      -0.22974647
Cu       0.18950200       3.68279852       7.79315739      -0.09157423       0.38840296      -0.05704512
Cu       2.24180620       5.47624982       4.15059708      -1.05275263      -0.30217327      -0.20978298
Cu       1.92866013       3.70588159       5.97028595       0.97928966       0.31545815      -0.16968206
Cu       0.16666307       5.38033251       5.83823016       0.61969738       0.70315159       0.74246435
Cu       0.22733726       3.75337906       4.05536886       0.32152545      -0.13592281       0.77176835
Cu       4.11629367       1.87890569       2.33136430      -0.30412090       0.21988724      -0.10309416
Cu       2.13534969       5.59044071       0.67480309      -0.46085711      -0.02092400      -0.82073615
Cu       0.43538870       5.62325489       2.45802721       0.30318512      -0.42589900      -0.83511272
Cu       0.48982877       3.36225531       0.52177475       0.24711757       0.59451079      -0.94991655
Cu       1.97631388       1.88521172       7.81089928       0.28249781       0.34425809      -0.34029002
Cu       1.80876515       0.10894963       9.41928981       0.56491166       0.26231500       0.90555828
Cu       0.05577847       1.87648040       9.60947715       0.20760319      -0.13350744      -0.25121683
Cu       0.16711753       0.10792443       7.81539736      -0.46207722      -0.28788155      -0.89616281
Cu       2.17900319       2.16080896       4.05815857      -0.39278482      -1.14895352       0.51926719
Cu       2.01292495       0.11012094       6.04605433       0.00524892      -0.07689675      -0.43907991
Cu       0.42296347       1.94347150       5.99245469      -1.04510853      -0.42030146      -0.74315635
Cu       2.22165511       3.66591156       2.25572836      -0.08243880       0.51548994      -0.31466798
Cu       0.38104995       0.17493306       4.15096391       0.37872336       0.24565339       0.42008977
Cu       5.85992012       0.13001351       2.24576528      -0.01548730       0.03515532       0.51310612
Cu       3.75663898       0.15364192       4.18828807       0.61290615       0.28356638       0.07479188
Cu       0.32422038       2.02892904       2.45546254       0.09139483      -0.75948855      -0.42622041
Cu       5.50727994       5.47000876       7.64145746       0.65314310      -0.14452370       0.67852355
Cu       5.39690232       3.66019781       9.48420899       0.92621877       0.45011643       0.30889521
Cu       3.58988317       5.52835155       9.52898609      -0.37528064      -0.32954386      -0.35702210
Cu       3.83869484       3.65565200       7.69085351      -0.96936998       0.20315326       0.07468015
Cu       5.78353988       5.63459525       4.11096468      -1.25014222      -0.24087276      -0.20164118
Cu       5.58114681       3.66892340       6.04286931       0.25418627      -0.03951205      -1.23116119
Cu       3.81188829       5.49186778       5.87709374       0.27273998      -0.53293667       0.08477410
Cu       3.97856668       3.65998965       3.96881270       0.68391147       0.65720580       0.71672982
Cu       5.60878979       1.79752118       0.45864251       0.72926257       1.23928077      -0.30451992
Cu       6.05323403       5.68122938       0.47157716       1.00421080      -0.21719006      -0.78235712
Cu       3.87964627       5.56619863       2.30062344       0.79033148       0.04795208       0.54624786
Cu       4.13767398       4.01751244       0.48909246       0.26223986       0.01034277      -0.79444975
Cu       5.70277205       1.87370764       7.63567215      -0.74455838       0.19419389       0.65287812
Cu       5.25340440       0.06934146       9.58150439       0.64687275       1.15739724       0.20689632
Cu       3.64173524       2.04517906       9.60094976       0.29777966      -1.47769739      -0.87542152